   16   16    1    2
  0.2045811E+02  0.5469419E-09  0.5469419E-09  0.1094216E-08  0.5000000E-15
  1.000000000000000E-004
  CAR 
 bulk CZTS                               
    124     60    100
 
  0.0000000E+00  0.0000000E+00  0.0000000E+00  0.1666667E-01
    1      -10.142738    -10.142858   1.000000   1.000000
    2       -9.664117     -9.664208   1.000000   1.000000
    3       -9.390943     -9.391012   1.000000   1.000000
    4       -8.747423     -8.747437   1.000000   1.000000
    5       -8.744480     -8.744494   1.000000   1.000000
    6       -8.744467     -8.744481   1.000000   1.000000
    7       -8.732465     -8.732476   1.000000   1.000000
    8       -8.732459     -8.732470   1.000000   1.000000
    9       -3.813270     -3.813480   1.000000   1.000000
   10       -3.709317     -3.709565   1.000000   1.000000
   11       -2.873896     -2.873900   1.000000   1.000000
   12       -2.851372     -2.851359   1.000000   1.000000
   13       -2.818496     -2.818475   1.000000   1.000000
   14       -2.818488     -2.818466   1.000000   1.000000
   15       -2.785184     -2.785154   1.000000   1.000000
   16       -2.785175     -2.785145   1.000000   1.000000
   17       -2.784140     -2.784131   1.000000   1.000000
   18       -2.734025     -2.734017   1.000000   1.000000
   19       -2.682057     -2.682057   1.000000   1.000000
   20       -2.466524     -2.466529   1.000000   1.000000
   21       -1.636523     -1.636750   1.000000   1.000000
   22       -1.376478     -1.376697   1.000000   1.000000
   23       -0.785191     -0.785373   1.000000   1.000000
   24       -0.617896     -0.618110   1.000000   1.000000
   25       -0.297127     -0.297285   1.000000   1.000000
   26       -0.284804     -0.284953   1.000000   1.000000
   27       -0.123635     -0.123820   1.000000   1.000000
   28       -0.118318     -0.118561   1.000000   1.000000
   29       -0.118314     -0.118558   1.000000   1.000000
   30        0.069351      0.069172   1.000000   1.000000
   31        0.169359      0.169206   1.000000   1.000000
   32        0.169363      0.169210   1.000000   1.000000
   33        0.513392      0.513299   1.000000   1.000000
   34        0.513410      0.513317   1.000000   1.000000
   35        0.545354      0.545287   1.000000   1.000000
   36        0.545370      0.545303   1.000000   1.000000
   37        0.898754      0.898641   1.000000   1.000000
   38        0.980531      0.980470   1.000000   1.000000
   39        0.980548      0.980486   1.000000   1.000000
   40        1.004405      1.004366   1.000000   1.000000
   41        1.024264      1.024169   1.000000   1.000000
   42        1.024283      1.024188   1.000000   1.000000
   43        2.016452      2.016409   1.000000   1.000000
   44        2.118919      2.118898   1.000000   1.000000
   45        2.210471      2.210432   1.000000   1.000000
   46        2.316055      2.316014   1.000000   1.000000
   47        2.353980      2.353965   1.000000   1.000000
   48        2.396715      2.396690   1.000000   1.000000
   49        2.440104      2.440104   1.000000   1.000000
   50        2.633447      2.633437   1.000000   1.000000
   51        2.653535      2.653496   1.000000   1.000000
   52        2.653539      2.653499   1.000000   1.000000
   53        2.817116      2.817103   1.000000   1.000000
   54        3.013042      3.013004   1.000000   1.000000
   55        3.127286      3.127200   1.000000   1.000000
   56        3.127289      3.127203   1.000000   1.000000
   57        3.136773      3.136778   1.000000   1.000000
   58        3.402385      3.402350   1.000000   1.000000
   59        3.402387      3.402353   1.000000   1.000000
   60        4.171110      4.171095   0.955585   0.955605
   61        4.171114      4.171099   0.955581   0.955600
   62        4.232283      4.232288   0.798563   0.798542
   63        4.304005      4.303653   0.429440   0.431395
   64        5.400172      5.400014   0.000000   0.000000
   65        6.205065      6.204390   0.000000   0.000000
   66        6.245032      6.244366   0.000000   0.000000
   67        6.245034      6.244369   0.000000   0.000000
   68        6.551984      6.551374   0.000000   0.000000
   69        6.919514      6.919155   0.000000   0.000000
   70        7.399911      7.399607   0.000000   0.000000
   71        7.742626      7.741920   0.000000   0.000000
   72        7.873867      7.873396   0.000000   0.000000
   73        7.873874      7.873403   0.000000   0.000000
   74        8.469027      8.468536   0.000000   0.000000
   75        8.489836      8.489375   0.000000   0.000000
   76        9.067562      9.067153   0.000000   0.000000
   77        9.230671      9.230301   0.000000   0.000000
   78        9.517378      9.516824   0.000000   0.000000
   79        9.517382      9.516828   0.000000   0.000000
   80        9.836678      9.836410   0.000000   0.000000
   81       10.685767     10.685416   0.000000   0.000000
   82       10.685772     10.685421   0.000000   0.000000
   83       10.983669     10.983215   0.000000   0.000000
   84       10.983674     10.983221   0.000000   0.000000
   85       11.129304     11.128760   0.000000   0.000000
   86       11.280651     11.280087   0.000000   0.000000
   87       11.556427     11.555889   0.000000   0.000000
   88       11.937110     11.936776   0.000000   0.000000
   89       11.937113     11.936779   0.000000   0.000000
   90       12.091599     12.091024   0.000000   0.000000
   91       13.585494     13.584985   0.000000   0.000000
   92       13.705899     13.704561   0.000000   0.000000
   93       13.816418     13.816173   0.000000   0.000000
   94       14.224381     14.219567   0.000000   0.000000
   95       14.660925     14.661384   0.000000   0.000000
   96       14.681656     14.684068   0.000000   0.000000
   97       14.705810     14.728523   0.000000   0.000000
   98       14.780006     14.768506   0.000000   0.000000
   99       15.019133     14.976765   0.000000   0.000000
  100       15.110889     15.040212   0.000000   0.000000
 
  0.0000000E+00  0.0000000E+00  0.5555556E-01  0.1666667E-01
    1      -10.140712    -10.140831   1.000000   1.000000
    2       -9.675398     -9.675489   1.000000   1.000000
    3       -9.378472     -9.378540   1.000000   1.000000
    4       -8.750769     -8.750783   1.000000   1.000000
    5       -8.744389     -8.744404   1.000000   1.000000
    6       -8.744376     -8.744390   1.000000   1.000000
    7       -8.732555     -8.732567   1.000000   1.000000
    8       -8.732549     -8.732561   1.000000   1.000000
    9       -3.812632     -3.812843   1.000000   1.000000
   10       -3.710352     -3.710600   1.000000   1.000000
   11       -2.873420     -2.873423   1.000000   1.000000
   12       -2.848946     -2.848933   1.000000   1.000000
   13       -2.818257     -2.818235   1.000000   1.000000
   14       -2.818248     -2.818226   1.000000   1.000000
   15       -2.785451     -2.785421   1.000000   1.000000
   16       -2.785441     -2.785411   1.000000   1.000000
   17       -2.784991     -2.784983   1.000000   1.000000
   18       -2.733972     -2.733964   1.000000   1.000000
   19       -2.681263     -2.681262   1.000000   1.000000
   20       -2.468431     -2.468437   1.000000   1.000000
   21       -1.634936     -1.635163   1.000000   1.000000
   22       -1.379051     -1.379271   1.000000   1.000000
   23       -0.788782     -0.788964   1.000000   1.000000
   24       -0.610963     -0.611176   1.000000   1.000000
   25       -0.364636     -0.364795   1.000000   1.000000
   26       -0.216703     -0.216851   1.000000   1.000000
   27       -0.116915     -0.117099   1.000000   1.000000
   28       -0.116172     -0.116415   1.000000   1.000000
   29       -0.116169     -0.116412   1.000000   1.000000
   30        0.064421      0.064242   1.000000   1.000000
   31        0.167206      0.167052   1.000000   1.000000
   32        0.167210      0.167056   1.000000   1.000000
   33        0.513531      0.513438   1.000000   1.000000
   34        0.513549      0.513456   1.000000   1.000000
   35        0.544925      0.544857   1.000000   1.000000
   36        0.544941      0.544873   1.000000   1.000000
   37        0.895312      0.895197   1.000000   1.000000
   38        0.980764      0.980702   1.000000   1.000000
   39        0.980781      0.980719   1.000000   1.000000
   40        1.000868      1.000827   1.000000   1.000000
   41        1.023763      1.023668   1.000000   1.000000
   42        1.023782      1.023687   1.000000   1.000000
   43        2.017029      2.016985   1.000000   1.000000
   44        2.115202      2.115179   1.000000   1.000000
   45        2.216138      2.216101   1.000000   1.000000
   46        2.316814      2.316774   1.000000   1.000000
   47        2.352881      2.352867   1.000000   1.000000
   48        2.396999      2.396975   1.000000   1.000000
   49        2.444069      2.444069   1.000000   1.000000
   50        2.630782      2.630771   1.000000   1.000000
   51        2.655826      2.655786   1.000000   1.000000
   52        2.655829      2.655790   1.000000   1.000000
   53        2.816481      2.816467   1.000000   1.000000
   54        2.999975      2.999941   1.000000   1.000000
   55        3.118140      3.118056   1.000000   1.000000
   56        3.118143      3.118060   1.000000   1.000000
   57        3.150055      3.150055   1.000000   1.000000
   58        3.413190      3.413153   1.000000   1.000000
   59        3.413193      3.413156   1.000000   1.000000
   60        4.149920      4.149805   0.977319   0.977406
   61        4.166015      4.165999   0.961941   0.961959
   62        4.166018      4.166003   0.961937   0.961955
   63        4.390361      4.390131   0.080896   0.081385
   64        5.399925      5.399768   0.000000   0.000000
   65        6.207386      6.206711   0.000000   0.000000
   66        6.255492      6.254828   0.000000   0.000000
   67        6.255495      6.254830   0.000000   0.000000
   68        6.548750      6.548140   0.000000   0.000000
   69        6.921624      6.921265   0.000000   0.000000
   70        7.397480      7.397172   0.000000   0.000000
   71        7.746511      7.745812   0.000000   0.000000
   72        7.858908      7.858433   0.000000   0.000000
   73        7.858914      7.858440   0.000000   0.000000
   74        8.466920      8.466426   0.000000   0.000000
   75        8.496875      8.496416   0.000000   0.000000
   76        9.027887      9.027475   0.000000   0.000000
   77        9.247295      9.246924   0.000000   0.000000
   78        9.512363      9.511815   0.000000   0.000000
   79        9.512366      9.511818   0.000000   0.000000
   80        9.802129      9.801851   0.000000   0.000000
   81       10.662351     10.661999   0.000000   0.000000
   82       10.662355     10.662004   0.000000   0.000000
   83       11.018281     11.017826   0.000000   0.000000
   84       11.018286     11.017831   0.000000   0.000000
   85       11.167182     11.166648   0.000000   0.000000
   86       11.301904     11.301344   0.000000   0.000000
   87       11.573274     11.572737   0.000000   0.000000
   88       11.962831     11.962497   0.000000   0.000000
   89       11.962835     11.962500   0.000000   0.000000
   90       12.107113     12.106538   0.000000   0.000000
   91       13.570079     13.569268   0.000000   0.000000
   92       13.688842     13.687534   0.000000   0.000000
   93       13.782780     13.780469   0.000000   0.000000
   94       14.243605     14.264782   0.000000   0.000000
   95       14.654169     14.657023   0.000000   0.000000
   96       14.664006     14.659973   0.000000   0.000000
   97       14.698582     14.682285   0.000000   0.000000
   98       14.770210     14.752137   0.000000   0.000000
   99       14.972011     14.970016   0.000000   0.000000
  100       15.011162     15.021604   0.000000   0.000000
 
  0.0000000E+00  0.0000000E+00  0.1111111E+00  0.1666667E-01
    1      -10.134642    -10.134761   1.000000   1.000000
    2       -9.704355     -9.704448   1.000000   1.000000
    3       -9.345979     -9.346044   1.000000   1.000000
    4       -8.760750     -8.760765   1.000000   1.000000
    5       -8.744120     -8.744135   1.000000   1.000000
    6       -8.744106     -8.744120   1.000000   1.000000
    7       -8.732827     -8.732839   1.000000   1.000000
    8       -8.732820     -8.732832   1.000000   1.000000
    9       -3.810734     -3.810945   1.000000   1.000000
   10       -3.713390     -3.713636   1.000000   1.000000
   11       -2.871996     -2.872000   1.000000   1.000000
   12       -2.841978     -2.841964   1.000000   1.000000
   13       -2.817544     -2.817522   1.000000   1.000000
   14       -2.817535     -2.817513   1.000000   1.000000
   15       -2.787368     -2.787361   1.000000   1.000000
   16       -2.786243     -2.786213   1.000000   1.000000
   17       -2.786233     -2.786203   1.000000   1.000000
   18       -2.733840     -2.733831   1.000000   1.000000
   19       -2.678878     -2.678877   1.000000   1.000000
   20       -2.474122     -2.474128   1.000000   1.000000
   21       -1.630197     -1.630424   1.000000   1.000000
   22       -1.386596     -1.386816   1.000000   1.000000
   23       -0.797841     -0.798024   1.000000   1.000000
   24       -0.591538     -0.591750   1.000000   1.000000
   25       -0.435730     -0.435892   1.000000   1.000000
   26       -0.144599     -0.144742   1.000000   1.000000
   27       -0.109805     -0.110047   1.000000   1.000000
   28       -0.109802     -0.110043   1.000000   1.000000
   29       -0.097455     -0.097636   1.000000   1.000000
   30        0.050433      0.050253   1.000000   1.000000
   31        0.160795      0.160639   1.000000   1.000000
   32        0.160799      0.160643   1.000000   1.000000
   33        0.513944      0.513852   1.000000   1.000000
   34        0.513963      0.513870   1.000000   1.000000
   35        0.543677      0.543609   1.000000   1.000000
   36        0.543693      0.543624   1.000000   1.000000
   37        0.885279      0.885162   1.000000   1.000000
   38        0.981450      0.981387   1.000000   1.000000
   39        0.981466      0.981404   1.000000   1.000000
   40        0.990365      0.990320   1.000000   1.000000
   41        1.022297      1.022204   1.000000   1.000000
   42        1.022317      1.022223   1.000000   1.000000
   43        2.018703      2.018660   1.000000   1.000000
   44        2.106219      2.106193   1.000000   1.000000
   45        2.230739      2.230708   1.000000   1.000000
   46        2.318857      2.318819   1.000000   1.000000
   47        2.351095      2.351080   1.000000   1.000000
   48        2.397947      2.397922   1.000000   1.000000
   49        2.454400      2.454399   1.000000   1.000000
   50        2.622852      2.622840   1.000000   1.000000
   51        2.662674      2.662634   1.000000   1.000000
   52        2.662678      2.662638   1.000000   1.000000
   53        2.814612      2.814597   1.000000   1.000000
   54        2.970574      2.970547   1.000000   1.000000
   55        3.093956      3.093879   1.000000   1.000000
   56        3.093960      3.093883   1.000000   1.000000
   57        3.180329      3.180320   1.000000   1.000000
   58        3.442359      3.442316   1.000000   1.000000
   59        3.442362      3.442319   1.000000   1.000000
   60        4.045224      4.045091   0.999751   0.999753
   61        4.150907      4.150890   0.976556   0.976570
   62        4.150911      4.150894   0.976554   0.976567
   63        4.506763      4.506557   0.001162   0.001174
   64        5.398783      5.398627   0.000000   0.000000
   65        6.214336      6.213662   0.000000   0.000000
   66        6.286632      6.285970   0.000000   0.000000
   67        6.286634      6.285973   0.000000   0.000000
   68        6.539336      6.538723   0.000000   0.000000
   69        6.927960      6.927600   0.000000   0.000000
   70        7.388809      7.388488   0.000000   0.000000
   71        7.759316      7.758640   0.000000   0.000000
   72        7.814474      7.813989   0.000000   0.000000
   73        7.814480      7.813996   0.000000   0.000000
   74        8.464005      8.463502   0.000000   0.000000
   75        8.515753      8.515298   0.000000   0.000000
   76        8.940182      8.939761   0.000000   0.000000
   77        9.267624      9.267251   0.000000   0.000000
   78        9.501873      9.501340   0.000000   0.000000
   79        9.501875      9.501342   0.000000   0.000000
   80        9.709648      9.709345   0.000000   0.000000
   81       10.597665     10.597311   0.000000   0.000000
   82       10.597670     10.597316   0.000000   0.000000
   83       11.116788     11.116331   0.000000   0.000000
   84       11.116793     11.116336   0.000000   0.000000
   85       11.269258     11.268744   0.000000   0.000000
   86       11.364748     11.364196   0.000000   0.000000
   87       11.622968     11.622435   0.000000   0.000000
   88       12.034086     12.033753   0.000000   0.000000
   89       12.034091     12.033756   0.000000   0.000000
   90       12.152994     12.152420   0.000000   0.000000
   91       13.523916     13.523850   0.000000   0.000000
   92       13.638023     13.637038   0.000000   0.000000
   93       13.692341     13.692019   0.000000   0.000000
   94       14.304730     14.313811   0.000000   0.000000
   95       14.603022     14.596065   0.000000   0.000000
   96       14.616895     14.624505   0.000000   0.000000
   97       14.660041     14.642110   0.000000   0.000000
   98       14.696632     14.695057   0.000000   0.000000
   99       14.928166     14.966281   0.000000   0.000000
  100       14.982410     15.047893   0.000000   0.000000
 
  0.0000000E+00  0.0000000E+00  0.1666667E+00  0.1666667E-01
    1      -10.124559    -10.124678   1.000000   1.000000
    2       -9.742702     -9.742798   1.000000   1.000000
    3       -9.301831     -9.301893   1.000000   1.000000
    4       -8.777200     -8.777216   1.000000   1.000000
    5       -8.743679     -8.743694   1.000000   1.000000
    6       -8.743664     -8.743679   1.000000   1.000000
    7       -8.733269     -8.733281   1.000000   1.000000
    8       -8.733262     -8.733274   1.000000   1.000000
    9       -3.807600     -3.807812   1.000000   1.000000
   10       -3.718241     -3.718485   1.000000   1.000000
   11       -2.869638     -2.869641   1.000000   1.000000
   12       -2.831531     -2.831516   1.000000   1.000000
   13       -2.816376     -2.816354   1.000000   1.000000
   14       -2.816368     -2.816345   1.000000   1.000000
   15       -2.790628     -2.790624   1.000000   1.000000
   16       -2.787531     -2.787501   1.000000   1.000000
   17       -2.787521     -2.787492   1.000000   1.000000
   18       -2.733700     -2.733691   1.000000   1.000000
   19       -2.674849     -2.674848   1.000000   1.000000
   20       -2.483496     -2.483502   1.000000   1.000000
   21       -1.622373     -1.622600   1.000000   1.000000
   22       -1.398626     -1.398846   1.000000   1.000000
   23       -0.808860     -0.809045   1.000000   1.000000
   24       -0.562266     -0.562477   1.000000   1.000000
   25       -0.503425     -0.503591   1.000000   1.000000
   26       -0.099389     -0.099627   1.000000   1.000000
   27       -0.099385     -0.099624   1.000000   1.000000
   28       -0.079634     -0.079774   1.000000   1.000000
   29       -0.067153     -0.067330   1.000000   1.000000
   30        0.031641      0.031461   1.000000   1.000000
   31        0.150287      0.150127   1.000000   1.000000
   32        0.150291      0.150131   1.000000   1.000000
   33        0.514638      0.514546   1.000000   1.000000
   34        0.514656      0.514565   1.000000   1.000000
   35        0.541731      0.541661   1.000000   1.000000
   36        0.541746      0.541676   1.000000   1.000000
   37        0.869608      0.869488   1.000000   1.000000
   38        0.973302      0.973253   1.000000   1.000000
   39        0.982591      0.982527   1.000000   1.000000
   40        0.982608      0.982544   1.000000   1.000000
   41        1.019985      1.019893   1.000000   1.000000
   42        1.020005      1.019913   1.000000   1.000000
   43        2.021352      2.021310   1.000000   1.000000
   44        2.095377      2.095349   1.000000   1.000000
   45        2.250222      2.250196   1.000000   1.000000
   46        2.321463      2.321429   1.000000   1.000000
   47        2.351744      2.351727   1.000000   1.000000
   48        2.399979      2.399953   1.000000   1.000000
   49        2.467914      2.467913   1.000000   1.000000
   50        2.609872      2.609860   1.000000   1.000000
   51        2.674017      2.673977   1.000000   1.000000
   52        2.674021      2.673980   1.000000   1.000000
   53        2.811635      2.811620   1.000000   1.000000
   54        2.935871      2.935847   1.000000   1.000000
   55        3.060660      3.060590   1.000000   1.000000
   56        3.060665      3.060595   1.000000   1.000000
   57        3.217276      3.217258   1.000000   1.000000
   58        3.483984      3.483936   1.000000   1.000000
   59        3.483988      3.483940   1.000000   1.000000
   60        3.945235      3.945103   1.000000   1.000000
   61        4.126224      4.126204   0.990265   0.990272
   62        4.126228      4.126207   0.990263   0.990271
   63        4.625248      4.625050   0.000001   0.000001
   64        5.395626      5.395471   0.000000   0.000000
   65        6.225869      6.225196   0.000000   0.000000
   66        6.337740      6.337083   0.000000   0.000000
   67        6.337742      6.337086   0.000000   0.000000
   68        6.524517      6.523901   0.000000   0.000000
   69        6.938542      6.938180   0.000000   0.000000
   70        7.370838      7.370498   0.000000   0.000000
   71        7.742203      7.741703   0.000000   0.000000
   72        7.742209      7.741709   0.000000   0.000000
   73        7.783731      7.783088   0.000000   0.000000
   74        8.463774      8.463262   0.000000   0.000000
   75        8.546030      8.545580   0.000000   0.000000
   76        8.832753      8.832317   0.000000   0.000000
   77        9.268111      9.267733   0.000000   0.000000
   78        9.495885      9.495372   0.000000   0.000000
   79        9.495886      9.495373   0.000000   0.000000
   80        9.581755      9.581423   0.000000   0.000000
   81       10.503916     10.503558   0.000000   0.000000
   82       10.503920     10.503563   0.000000   0.000000
   83       11.266602     11.266143   0.000000   0.000000
   84       11.266606     11.266147   0.000000   0.000000
   85       11.410522     11.410023   0.000000   0.000000
   86       11.468223     11.467691   0.000000   0.000000
   87       11.703143     11.702614   0.000000   0.000000
   88       12.137513     12.137180   0.000000   0.000000
   89       12.137518     12.137183   0.000000   0.000000
   90       12.227291     12.226718   0.000000   0.000000
   91       13.448086     13.447992   0.000000   0.000000
   92       13.555666     13.555707   0.000000   0.000000
   93       13.575014     13.574524   0.000000   0.000000
   94       14.366620     14.361556   0.000000   0.000000
   95       14.494514     14.495989   0.000000   0.000000
   96       14.503017     14.503331   0.000000   0.000000
   97       14.551322     14.553255   0.000000   0.000000
   98       14.677247     14.687434   0.000000   0.000000
   99       14.759676     14.761062   0.000000   0.000000
  100       14.842114     14.853793   0.000000   0.000000
 
  0.0000000E+00  0.0000000E+00  0.2222222E+00  0.1666667E-01
    1      -10.110515    -10.110632   1.000000   1.000000
    2       -9.784878     -9.784977   1.000000   1.000000
    3       -9.251753     -9.251812   1.000000   1.000000
    4       -8.799853     -8.799872   1.000000   1.000000
    5       -8.743082     -8.743097   1.000000   1.000000
    6       -8.743066     -8.743080   1.000000   1.000000
    7       -8.733872     -8.733884   1.000000   1.000000
    8       -8.733863     -8.733875   1.000000   1.000000
    9       -3.803290     -3.803503   1.000000   1.000000
   10       -3.724627     -3.724868   1.000000   1.000000
   11       -2.866371     -2.866374   1.000000   1.000000
   12       -2.820358     -2.820340   1.000000   1.000000
   13       -2.814784     -2.814761   1.000000   1.000000
   14       -2.814776     -2.814753   1.000000   1.000000
   15       -2.792800     -2.792801   1.000000   1.000000
   16       -2.789273     -2.789244   1.000000   1.000000
   17       -2.789263     -2.789234   1.000000   1.000000
   18       -2.733690     -2.733680   1.000000   1.000000
   19       -2.668973     -2.668974   1.000000   1.000000
   20       -2.496365     -2.496372   1.000000   1.000000
   21       -1.611590     -1.611817   1.000000   1.000000
   22       -1.414453     -1.414674   1.000000   1.000000
   23       -0.818643     -0.818828   1.000000   1.000000
   24       -0.566568     -0.566737   1.000000   1.000000
   25       -0.525352     -0.525562   1.000000   1.000000
   26       -0.085217     -0.085451   1.000000   1.000000
   27       -0.085213     -0.085448   1.000000   1.000000
   28       -0.047363     -0.047522   1.000000   1.000000
   29       -0.028759     -0.028930   1.000000   1.000000
   30        0.032231      0.032075   1.000000   1.000000
   31        0.135944      0.135778   1.000000   1.000000
   32        0.135947      0.135782   1.000000   1.000000
   33        0.515597      0.515506   1.000000   1.000000
   34        0.515616      0.515525   1.000000   1.000000
   35        0.539246      0.539175   1.000000   1.000000
   36        0.539261      0.539190   1.000000   1.000000
   37        0.850042      0.849918   1.000000   1.000000
   38        0.950376      0.950318   1.000000   1.000000
   39        0.984162      0.984097   1.000000   1.000000
   40        0.984179      0.984114   1.000000   1.000000
   41        1.016985      1.016895   1.000000   1.000000
   42        1.017005      1.016915   1.000000   1.000000
   43        2.024732      2.024692   1.000000   1.000000
   44        2.084609      2.084578   1.000000   1.000000
   45        2.271357      2.271337   1.000000   1.000000
   46        2.323581      2.323553   1.000000   1.000000
   47        2.357482      2.357461   1.000000   1.000000
   48        2.403861      2.403835   1.000000   1.000000
   49        2.481552      2.481551   1.000000   1.000000
   50        2.592200      2.592186   1.000000   1.000000
   51        2.689729      2.689688   1.000000   1.000000
   52        2.689733      2.689692   1.000000   1.000000
   53        2.807733      2.807718   1.000000   1.000000
   54        2.900764      2.900741   1.000000   1.000000
   55        3.022690      3.022626   1.000000   1.000000
   56        3.022696      3.022631   1.000000   1.000000
   57        3.257225      3.257199   1.000000   1.000000
   58        3.533626      3.533573   1.000000   1.000000
   59        3.533630      3.533578   1.000000   1.000000
   60        3.851984      3.851857   1.000000   1.000000
   61        4.092722      4.092698   0.997524   0.997527
   62        4.092725      4.092701   0.997524   0.997527
   63        4.742322      4.742130   0.000000   0.000000
   64        5.388641      5.388487   0.000000   0.000000
   65        6.241862      6.241192   0.000000   0.000000
   66        6.407678      6.407028   0.000000   0.000000
   67        6.407681      6.407031   0.000000   0.000000
   68        6.505320      6.504699   0.000000   0.000000
   69        6.953442      6.953078   0.000000   0.000000
   70        7.341334      7.340973   0.000000   0.000000
   71        7.645367      7.644850   0.000000   0.000000
   72        7.645373      7.644855   0.000000   0.000000
   73        7.822011      7.821405   0.000000   0.000000
   74        8.469372      8.468853   0.000000   0.000000
   75        8.588448      8.588001   0.000000   0.000000
   76        8.717232      8.716782   0.000000   0.000000
   77        9.242809      9.242423   0.000000   0.000000
   78        9.439025      9.438668   0.000000   0.000000
   79        9.503423      9.502933   0.000000   0.000000
   80        9.503424      9.502934   0.000000   0.000000
   81       10.392987     10.392625   0.000000   0.000000
   82       10.392991     10.392629   0.000000   0.000000
   83       11.453659     11.453200   0.000000   0.000000
   84       11.453662     11.453204   0.000000   0.000000
   85       11.563444     11.562937   0.000000   0.000000
   86       11.615472     11.614981   0.000000   0.000000
   87       11.810161     11.809639   0.000000   0.000000
   88       12.258727     12.258393   0.000000   0.000000
   89       12.258732     12.258403   0.000000   0.000000
   90       12.326582     12.326013   0.000000   0.000000
   91       13.342077     13.341521   0.000000   0.000000
   92       13.444777     13.444189   0.000000   0.000000
   93       13.447198     13.446975   0.000000   0.000000
   94       14.321720     14.319483   0.000000   0.000000
   95       14.369828     14.369349   0.000000   0.000000
   96       14.395821     14.383116   0.000000   0.000000
   97       14.463573     14.455132   0.000000   0.000000
   98       14.537771     14.530622   0.000000   0.000000
   99       14.633015     14.541630   0.000000   0.000000
  100       14.884881     14.696832   0.000000   0.000000
 
  0.0000000E+00  0.0000000E+00  0.2777778E+00  0.1666667E-01
    1      -10.092575    -10.092692   1.000000   1.000000
    2       -9.827896     -9.827997   1.000000   1.000000
    3       -9.198941     -9.198996   1.000000   1.000000
    4       -8.828334     -8.828356   1.000000   1.000000
    5       -8.742350     -8.742364   1.000000   1.000000
    6       -8.742331     -8.742345   1.000000   1.000000
    7       -8.734613     -8.734625   1.000000   1.000000